% Model:              MRP_withobs.mph
% Version:            COMSOL 6.2.0.290
% Date:               Mar 14 2026, 23:47
% Table:              Table 4 - Global Evaluation 1
% u_in (m/s)             h_ratio                  Re (1)                   pe (1)                   c_bulk (mol/m^3)         sc (1)                   c_wall (mol/m^3)         sh (1)                   Re (1)                   pe (1)                   c_bulk (mol/m^3)         sc (1)                   c_wall (mol/m^3)         sh (1)                   Re (1)                   pe (1)                   c_bulk (mol/m^3)         sc (1)                   c_wall (mol/m^3)         sh (1)                   Re (1)                   pe (1)                   c_bulk (mol/m^3)         sc (1)                   c_wall (mol/m^3)         sh (1)
0.005                    0.1                      7.750000000000002        21.385799828913605       1995.3764936622085       2.7594580424404644       1995.9791547088175       7.097123648274702        7.750000000000002        21.385799828913605       1995.3764936622085       2.7594580424404644       1995.9791547088175       7.097123648274702        7.750000000000002        21.385799828913605       1995.3764936622085       2.7594580424404644       1995.9791547088175       7.097123648274702        7.750000000000002        21.385799828913605       1995.3764936622085       2.7594580424404644       1995.9791547088175       7.097123648274702
0.005                    0.2                      7.750000000000002        21.385799828913605       1994.8436485159975       2.7594580424404644       1995.4570335935175       6.97304209465938         7.750000000000002        21.385799828913605       1994.8436485159975       2.7594580424404644       1995.4570335935175       6.97304209465938         7.750000000000002        21.385799828913605       1994.8436485159975       2.7594580424404644       1995.4570335935175       6.97304209465938         7.750000000000002        21.385799828913605       1994.8436485159975       2.7594580424404644       1995.4570335935175       6.97304209465938
0.005                    0.3                      7.750000000000002        21.385799828913605       1994.3205358950102       2.7594580424404644       1994.9572323529603       6.717737961905696        7.750000000000002        21.385799828913605       1994.3205358950102       2.7594580424404644       1994.9572323529603       6.717737961905696        7.750000000000002        21.385799828913605       1994.3205358950102       2.7594580424404644       1994.9572323529603       6.717737961905696        7.750000000000002        21.385799828913605       1994.3205358950102       2.7594580424404644       1994.9572323529603       6.717737961905696
0.005                    0.4                      7.750000000000002        21.385799828913605       1993.7959432900836       2.7594580424404644       1994.4761682516028       6.287860939755477        7.750000000000002        21.385799828913605       1993.7959432900836       2.7594580424404644       1994.4761682516028       6.287860939755477        7.750000000000002        21.385799828913605       1993.7959432900836       2.7594580424404644       1994.4761682516028       6.287860939755477        7.750000000000002        21.385799828913605       1993.7959432900836       2.7594580424404644       1994.4761682516028       6.287860939755477
0.008                    0.1                      12.400000000000002       34.217279726261765       1997.0734335052214       2.7594580424404644       1996.8711932879628       -21.14890907338226       12.400000000000002       34.217279726261765       1997.0734335052214       2.7594580424404644       1996.8711932879628       -21.14890907338226       12.400000000000002       34.217279726261765       1997.0734335052214       2.7594580424404644       1996.8711932879628       -21.14890907338226       12.400000000000002       34.217279726261765       1997.0734335052214       2.7594580424404644       1996.8711932879628       -21.14890907338226
0.008                    0.2                      12.400000000000002       34.217279726261765       1996.7391825497402       2.7594580424404644       1996.4458983404404       -14.583669458351714      12.400000000000002       34.217279726261765       1996.7391825497402       2.7594580424404644       1996.4458983404404       -14.583669458351714      12.400000000000002       34.217279726261765       1996.7391825497402       2.7594580424404644       1996.4458983404404       -14.583669458351714      12.400000000000002       34.217279726261765       1996.7391825497402       2.7594580424404644       1996.4458983404404       -14.583669458351714
0.008                    0.3                      12.400000000000002       34.217279726261765       1996.4096509629392       2.7594580424404644       1996.0299785993127       -11.265397156983221      12.400000000000002       34.217279726261765       1996.4096509629392       2.7594580424404644       1996.0299785993127       -11.265397156983221      12.400000000000002       34.217279726261765       1996.4096509629392       2.7594580424404644       1996.0299785993127       -11.265397156983221      12.400000000000002       34.217279726261765       1996.4096509629392       2.7594580424404644       1996.0299785993127       -11.265397156983221
0.008                    0.4                      12.400000000000002       34.217279726261765       1996.0780818143728       2.7594580424404644       1995.6158088368288       -9.252455093756181       12.400000000000002       34.217279726261765       1996.0780818143728       2.7594580424404644       1995.6158088368288       -9.252455093756181       12.400000000000002       34.217279726261765       1996.0780818143728       2.7594580424404644       1995.6158088368288       -9.252455093756181       12.400000000000002       34.217279726261765       1996.0780818143728       2.7594580424404644       1995.6158088368288       -9.252455093756181
0.011                    0.1                      17.05                    47.048759623609925       1997.8416726796638       2.7594580424404644       1997.294020784037        -7.809997554901744       17.05                    47.048759623609925       1997.8416726796638       2.7594580424404644       1997.294020784037        -7.809997554901744       17.05                    47.048759623609925       1997.8416726796638       2.7594580424404644       1997.294020784037        -7.809997554901744       17.05                    47.048759623609925       1997.8416726796638       2.7594580424404644       1997.294020784037        -7.809997554901744
0.011                    0.2                      17.05                    47.048759623609925       1997.6010203108383       2.7594580424404644       1996.9118493928827       -6.206239779343435       17.05                    47.048759623609925       1997.6010203108383       2.7594580424404644       1996.9118493928827       -6.206239779343435       17.05                    47.048759623609925       1997.6010203108383       2.7594580424404644       1996.9118493928827       -6.206239779343435       17.05                    47.048759623609925       1997.6010203108383       2.7594580424404644       1996.9118493928827       -6.206239779343435
0.011                    0.3                      17.05                    47.048759623609925       1997.3571250564319       2.7594580424404644       1996.5203547440274       -5.111510174748089       17.05                    47.048759623609925       1997.3571250564319       2.7594580424404644       1996.5203547440274       -5.111510174748089       17.05                    47.048759623609925       1997.3571250564319       2.7594580424404644       1996.5203547440274       -5.111510174748089       17.05                    47.048759623609925       1997.3571250564319       2.7594580424404644       1996.5203547440274       -5.111510174748089
0.011                    0.4                      17.05                    47.048759623609925       1997.1101198283864       2.7594580424404644       1996.11346075022         -4.291497523557883       17.05                    47.048759623609925       1997.1101198283864       2.7594580424404644       1996.11346075022         -4.291497523557883       17.05                    47.048759623609925       1997.1101198283864       2.7594580424404644       1996.11346075022         -4.291497523557883       17.05                    47.048759623609925       1997.1101198283864       2.7594580424404644       1996.11346075022         -4.291497523557883
0.014000000000000002     0.1                      21.700000000000006       59.88023952095809        1998.2847104715115       2.7594580424404644       1997.554889373657        -5.860559496507638       21.700000000000006       59.88023952095809        1998.2847104715115       2.7594580424404644       1997.554889373657        -5.860559496507638       21.700000000000006       59.88023952095809        1998.2847104715115       2.7594580424404644       1997.554889373657        -5.860559496507638       21.700000000000006       59.88023952095809        1998.2847104715115       2.7594580424404644       1997.554889373657        -5.860559496507638
0.014000000000000002     0.2                      21.700000000000006       59.88023952095809        1998.0923782470518       2.7594580424404644       1997.1898929745212       -4.739312757746572       21.700000000000006       59.88023952095809        1998.0923782470518       2.7594580424404644       1997.1898929745212       -4.739312757746572       21.700000000000006       59.88023952095809        1998.0923782470518       2.7594580424404644       1997.1898929745212       -4.739312757746572       21.700000000000006       59.88023952095809        1998.0923782470518       2.7594580424404644       1997.1898929745212       -4.739312757746572
0.014000000000000002     0.3                      21.700000000000006       59.88023952095809        1997.8953483400192       2.7594580424404644       1996.803578257089        -3.9176380014949306      21.700000000000006       59.88023952095809        1997.8953483400192       2.7594580424404644       1996.803578257089        -3.9176380014949306      21.700000000000006       59.88023952095809        1997.8953483400192       2.7594580424404644       1996.803578257089        -3.9176380014949306      21.700000000000006       59.88023952095809        1997.8953483400192       2.7594580424404644       1996.803578257089        -3.9176380014949306
0.014000000000000002     0.4                      21.700000000000006       59.88023952095809        1997.6933356560733       2.7594580424404644       1996.393208856445        -3.2898021693003945      21.700000000000006       59.88023952095809        1997.6933356560733       2.7594580424404644       1996.393208856445        -3.2898021693003945      21.700000000000006       59.88023952095809        1997.6933356560733       2.7594580424404644       1996.393208856445        -3.2898021693003945      21.700000000000006       59.88023952095809        1997.6933356560733       2.7594580424404644       1996.393208856445        -3.2898021693003945
0.017                    0.1                      26.350000000000005       72.71171941830626        1998.5684578525352       2.7594580424404644       1997.732845967757        -5.118596376735107       26.350000000000005       72.71171941830626        1998.5684578525352       2.7594580424404644       1997.732845967757        -5.118596376735107       26.350000000000005       72.71171941830626        1998.5684578525352       2.7594580424404644       1997.732845967757        -5.118596376735107       26.350000000000005       72.71171941830626        1998.5684578525352       2.7594580424404644       1997.732845967757        -5.118596376735107
0.017                    0.2                      26.350000000000005       72.71171941830626        1998.4066536699386       2.7594580424404644       1997.376710430649        -4.152811342043148       26.350000000000005       72.71171941830626        1998.4066536699386       2.7594580424404644       1997.376710430649        -4.152811342043148       26.350000000000005       72.71171941830626        1998.4066536699386       2.7594580424404644       1997.376710430649        -4.152811342043148       26.350000000000005       72.71171941830626        1998.4066536699386       2.7594580424404644       1997.376710430649        -4.152811342043148
0.017                    0.3                      26.350000000000005       72.71171941830626        1998.2386579417728       2.7594580424404644       1996.989420673327        -3.4238171353181994      26.350000000000005       72.71171941830626        1998.2386579417728       2.7594580424404644       1996.989420673327        -3.4238171353181994      26.350000000000005       72.71171941830626        1998.2386579417728       2.7594580424404644       1996.989420673327        -3.4238171353181994      26.350000000000005       72.71171941830626        1998.2386579417728       2.7594580424404644       1996.989420673327        -3.4238171353181994
0.017                    0.4                      26.350000000000005       72.71171941830626        1998.0649133640177       2.7594580424404644       1996.5833409829927       -2.8869058444675337      26.350000000000005       72.71171941830626        1998.0649133640177       2.7594580424404644       1996.5833409829927       -2.8869058444675337      26.350000000000005       72.71171941830626        1998.0649133640177       2.7594580424404644       1996.5833409829927       -2.8869058444675337      26.350000000000005       72.71171941830626        1998.0649133640177       2.7594580424404644       1996.5833409829927       -2.8869058444675337
0.02                     0.1                      31.000000000000007       85.54319931565442        1998.7695206612782       2.7594580424404644       1997.868615835874        -4.7476268804125965      31.000000000000007       85.54319931565442        1998.7695206612782       2.7594580424404644       1997.868615835874        -4.7476268804125965      31.000000000000007       85.54319931565442        1998.7695206612782       2.7594580424404644       1997.868615835874        -4.7476268804125965      31.000000000000007       85.54319931565442        1998.7695206612782       2.7594580424404644       1997.868615835874        -4.7476268804125965
0.02                     0.2                      31.000000000000007       85.54319931565442        1998.6285246027735       2.7594580424404644       1997.5165352248337       -3.8464036173681313      31.000000000000007       85.54319931565442        1998.6285246027735       2.7594580424404644       1997.5165352248337       -3.8464036173681313      31.000000000000007       85.54319931565442        1998.6285246027735       2.7594580424404644       1997.5165352248337       -3.8464036173681313      31.000000000000007       85.54319931565442        1998.6285246027735       2.7594580424404644       1997.5165352248337       -3.8464036173681313
0.02                     0.3                      31.000000000000007       85.54319931565442        1998.4794478328115       2.7594580424404644       1997.1255395206178       -3.159120840947277       31.000000000000007       85.54319931565442        1998.4794478328115       2.7594580424404644       1997.1255395206178       -3.159120840947277       31.000000000000007       85.54319931565442        1998.4794478328115       2.7594580424404644       1997.1255395206178       -3.159120840947277       31.000000000000007       85.54319931565442        1998.4794478328115       2.7594580424404644       1997.1255395206178       -3.159120840947277
0.02                     0.4                      31.000000000000007       85.54319931565442        1998.3193431663049       2.7594580424404644       1996.735377863683        -2.7002864006571756      31.000000000000007       85.54319931565442        1998.3193431663049       2.7594580424404644       1996.735377863683        -2.7002864006571756      31.000000000000007       85.54319931565442        1998.3193431663049       2.7594580424404644       1996.735377863683        -2.7002864006571756      31.000000000000007       85.54319931565442        1998.3193431663049       2.7594580424404644       1996.735377863683        -2.7002864006571756
0.023000000000000003     0.1                      35.65000000000001        98.37467921300258        1998.916130092402        2.7594580424404644       1997.974187765308        -4.540787522499596       35.65000000000001        98.37467921300258        1998.916130092402        2.7594580424404644       1997.974187765308        -4.540787522499596       35.65000000000001        98.37467921300258        1998.916130092402        2.7594580424404644       1997.974187765308        -4.540787522499596       35.65000000000001        98.37467921300258        1998.916130092402        2.7594580424404644       1997.974187765308        -4.540787522499596
0.023000000000000003     0.2                      35.65000000000001        98.37467921300258        1998.7901764942337       2.7594580424404644       1997.6241736235402       -3.668224215639055       35.65000000000001        98.37467921300258        1998.7901764942337       2.7594580424404644       1997.6241736235402       -3.668224215639055       35.65000000000001        98.37467921300258        1998.7901764942337       2.7594580424404644       1997.6241736235402       -3.668224215639055       35.65000000000001        98.37467921300258        1998.7901764942337       2.7594580424404644       1997.6241736235402       -3.668224215639055
0.023000000000000003     0.3                      35.65000000000001        98.37467921300258        1998.6544609930768       2.7594580424404644       1997.2304916481028       -3.0036882330923924      35.65000000000001        98.37467921300258        1998.6544609930768       2.7594580424404644       1997.2304916481028       -3.0036882330923924      35.65000000000001        98.37467921300258        1998.6544609930768       2.7594580424404644       1997.2304916481028       -3.0036882330923924      35.65000000000001        98.37467921300258        1998.6544609930768       2.7594580424404644       1997.2304916481028       -3.0036882330923924
0.023000000000000003     0.4                      35.65000000000001        98.37467921300258        1998.5036698233441       2.7594580424404644       1996.8719610717005       -2.6212765982130017      35.65000000000001        98.37467921300258        1998.5036698233441       2.7594580424404644       1996.8719610717005       -2.6212765982130017      35.65000000000001        98.37467921300258        1998.5036698233441       2.7594580424404644       1996.8719610717005       -2.6212765982130017      35.65000000000001        98.37467921300258        1998.5036698233441       2.7594580424404644       1996.8719610717005       -2.6212765982130017
0.026000000000000002     0.1                      40.30000000000001        111.20615911035074       1999.0303635638732       2.7594580424404644       1998.0619923371491       -4.416859823739644       40.30000000000001        111.20615911035074       1999.0303635638732       2.7594580424404644       1998.0619923371491       -4.416859823739644       40.30000000000001        111.20615911035074       1999.0303635638732       2.7594580424404644       1998.0619923371491       -4.416859823739644       40.30000000000001        111.20615911035074       1999.0303635638732       2.7594580424404644       1998.0619923371491       -4.416859823739644
0.026000000000000002     0.2                      40.30000000000001        111.20615911035074       1998.9156306261834       2.7594580424404644       1997.712235081612        -3.554242813244208       40.30000000000001        111.20615911035074       1998.9156306261834       2.7594580424404644       1997.712235081612        -3.554242813244208       40.30000000000001        111.20615911035074       1998.9156306261834       2.7594580424404644       1997.712235081612        -3.554242813244208       40.30000000000001        111.20615911035074       1998.9156306261834       2.7594580424404644       1997.712235081612        -3.554242813244208
0.026000000000000002     0.3                      40.30000000000001        111.20615911035074       1998.78899383654         2.7594580424404644       1997.3162155542982       -2.9041438330231233      40.30000000000001        111.20615911035074       1998.78899383654         2.7594580424404644       1997.3162155542982       -2.9041438330231233      40.30000000000001        111.20615911035074       1998.78899383654         2.7594580424404644       1997.3162155542982       -2.9041438330231233      40.30000000000001        111.20615911035074       1998.78899383654         2.7594580424404644       1997.3162155542982       -2.9041438330231233
0.026000000000000002     0.4                      40.30000000000001        111.20615911035074       1998.6408489082405       2.7594580424404644       1997.0026535896527       -2.6108974413806885      40.30000000000001        111.20615911035074       1998.6408489082405       2.7594580424404644       1997.0026535896527       -2.6108974413806885      40.30000000000001        111.20615911035074       1998.6408489082405       2.7594580424404644       1997.0026535896527       -2.6108974413806885      40.30000000000001        111.20615911035074       1998.6408489082405       2.7594580424404644       1997.0026535896527       -2.6108974413806885
0.029                    0.1                      44.95000000000001        124.03763900769891       1999.1196734899047       2.7594580424404644       1998.134916726838        -4.343366937092659       44.95000000000001        124.03763900769891       1999.1196734899047       2.7594580424404644       1998.134916726838        -4.343366937092659       44.95000000000001        124.03763900769891       1999.1196734899047       2.7594580424404644       1998.134916726838        -4.343366937092659       44.95000000000001        124.03763900769891       1999.1196734899047       2.7594580424404644       1998.134916726838        -4.343366937092659
0.029                    0.2                      44.95000000000001        124.03763900769891       1999.0136545932257       2.7594580424404644       1997.7850627596372       -3.4813514536310306      44.95000000000001        124.03763900769891       1999.0136545932257       2.7594580424404644       1997.7850627596372       -3.4813514536310306      44.95000000000001        124.03763900769891       1999.0136545932257       2.7594580424404644       1997.7850627596372       -3.4813514536310306      44.95000000000001        124.03763900769891       1999.0136545932257       2.7594580424404644       1997.7850627596372       -3.4813514536310306
0.029                    0.3                      44.95000000000001        124.03763900769891       1998.8938867833301       2.7594580424404644       1997.3889826032591       -2.8421477077570376      44.95000000000001        124.03763900769891       1998.8938867833301       2.7594580424404644       1997.3889826032591       -2.8421477077570376      44.95000000000001        124.03763900769891       1998.8938867833301       2.7594580424404644       1997.3889826032591       -2.8421477077570376      44.95000000000001        124.03763900769891       1998.8938867833301       2.7594580424404644       1997.3889826032591       -2.8421477077570376
0.029                    0.4                      44.95000000000001        124.03763900769891       1998.7463213329745       2.7594580424404644       1997.1291709990028       -2.6448746761088153      44.95000000000001        124.03763900769891       1998.7463213329745       2.7594580424404644       1997.1291709990028       -2.6448746761088153      44.95000000000001        124.03763900769891       1998.7463213329745       2.7594580424404644       1997.1291709990028       -2.6448746761088153      44.95000000000001        124.03763900769891       1998.7463213329745       2.7594580424404644       1997.1291709990028       -2.6448746761088153
0.032                    0.1                      49.60000000000001        136.86911890504706       1999.1922139464377       2.7594580424404644       1998.197645509681        -4.300518504016232       49.60000000000001        136.86911890504706       1999.1922139464377       2.7594580424404644       1998.197645509681        -4.300518504016232       49.60000000000001        136.86911890504706       1999.1922139464377       2.7594580424404644       1998.197645509681        -4.300518504016232       49.60000000000001        136.86911890504706       1999.1922139464377       2.7594580424404644       1998.197645509681        -4.300518504016232
0.032                    0.2                      49.60000000000001        136.86911890504706       1999.0938820553215       2.7594580424404644       1997.8473420227479       -3.431225515438885       49.60000000000001        136.86911890504706       1999.0938820553215       2.7594580424404644       1997.8473420227479       -3.431225515438885       49.60000000000001        136.86911890504706       1999.0938820553215       2.7594580424404644       1997.8473420227479       -3.431225515438885       49.60000000000001        136.86911890504706       1999.0938820553215       2.7594580424404644       1997.8473420227479       -3.431225515438885
0.032                    0.3                      49.60000000000001        136.86911890504706       1998.9785341664142       2.7594580424404644       1997.4520365793708       -2.801943482968016       49.60000000000001        136.86911890504706       1998.9785341664142       2.7594580424404644       1997.4520365793708       -2.801943482968016       49.60000000000001        136.86911890504706       1998.9785341664142       2.7594580424404644       1997.4520365793708       -2.801943482968016       49.60000000000001        136.86911890504706       1998.9785341664142       2.7594580424404644       1997.4520365793708       -2.801943482968016
0.032                    0.4                      49.60000000000001        136.86911890504706       1998.8289821702585       2.7594580424404644       1997.2493563503074       -2.70770451569028        49.60000000000001        136.86911890504706       1998.8289821702585       2.7594580424404644       1997.2493563503074       -2.70770451569028        49.60000000000001        136.86911890504706       1998.8289821702585       2.7594580424404644       1997.2493563503074       -2.70770451569028        49.60000000000001        136.86911890504706       1998.8289821702585       2.7594580424404644       1997.2493563503074       -2.70770451569028
0.034999999999999996     0.1                      54.25                    149.7005988023952        1999.2531286711944       2.7594580424404644       1998.2528556533719       -4.275992543609162       54.25                    149.7005988023952        1999.2531286711944       2.7594580424404644       1998.2528556533719       -4.275992543609162       54.25                    149.7005988023952        1999.2531286711944       2.7594580424404644       1998.2528556533719       -4.275992543609162       54.25                    149.7005988023952        1999.2531286711944       2.7594580424404644       1998.2528556533719       -4.275992543609162
0.034999999999999996     0.2                      54.25                    149.7005988023952        1999.1594632445367       2.7594580424404644       1997.9012885825264       -3.3994961867604303      54.25                    149.7005988023952        1999.1594632445367       2.7594580424404644       1997.9012885825264       -3.3994961867604303      54.25                    149.7005988023952        1999.1594632445367       2.7594580424404644       1997.9012885825264       -3.3994961867604303      54.25                    149.7005988023952        1999.1594632445367       2.7594580424404644       1997.9012885825264       -3.3994961867604303
0.034999999999999996     0.3                      54.25                    149.7005988023952        1999.0475954637755       2.7594580424404644       1997.5090913703882       -2.780077078875959       54.25                    149.7005988023952        1999.0475954637755       2.7594580424404644       1997.5090913703882       -2.780077078875959       54.25                    149.7005988023952        1999.0475954637755       2.7594580424404644       1997.5090913703882       -2.780077078875959       54.25                    149.7005988023952        1999.0475954637755       2.7594580424404644       1997.5090913703882       -2.780077078875959
0.034999999999999996     0.4                      54.25                    149.7005988023952        1998.8925961714963       2.7594580424404644       1997.360846613002        -2.792336346411034       54.25                    149.7005988023952        1998.8925961714963       2.7594580424404644       1997.360846613002        -2.792336346411034       54.25                    149.7005988023952        1998.8925961714963       2.7594580424404644       1997.360846613002        -2.792336346411034       54.25                    149.7005988023952        1998.8925961714963       2.7594580424404644       1997.360846613002        -2.792336346411034
0.038                    0.1                      58.9                     162.53207869974338       1999.30368961726         2.7594580424404644       1998.3012684166777       -4.266829116640613       58.9                     162.53207869974338       1999.30368961726         2.7594580424404644       1998.3012684166777       -4.266829116640613       58.9                     162.53207869974338       1999.30368961726         2.7594580424404644       1998.3012684166777       -4.266829116640613       58.9                     162.53207869974338       1999.30368961726         2.7594580424404644       1998.3012684166777       -4.266829116640613